version 3
run General-0-20221203-02:33:45-28692
attr configname General
attr datetime 20221203-02:33:45
attr datetimef 20221203-023345
attr experiment General
attr inifile omnetpp.ini
attr iterationvars ""
attr iterationvarsd ""
attr iterationvarsf ""
attr measurement ""
attr network GreenNetwork
attr processid 28692
attr repetition 0
attr replication #0
attr resultdir results
attr runnumber 0
attr seedset 0
config network GreenNetwork
config GreenNetwork.edge1.delayTime truncnormal(3s,1s)
config GreenNetwork.edge2.delayTime truncnormal(3s,1s)
config GreenNetwork.edge3.delayTime truncnormal(3s,1s)
config GreenNetwork.edge4.delayTime truncnormal(3s,1s)
config GreenNetwork.edge5.delayTime truncnormal(3s,1s)
config GreenNetwork.edge6.delayTime truncnormal(3s,1s)
config GreenNetwork.edge7.delayTime truncnormal(3s,1s)
config GreenNetwork.edge8.delayTime truncnormal(3s,1s)
config GreenNetwork.edge9.delayTime truncnormal(3s,1s)
config GreenNetwork.edge10.delayTime truncnormal(3s,1s)
config GreenNetwork.edge11.delayTime truncnormal(3s,1s)
config GreenNetwork.edge12.delayTime truncnormal(3s,1s)
config GreenNetwork.edge13.delayTime truncnormal(3s,1s)
config GreenNetwork.edge14.delayTime truncnormal(3s,1s)
config GreenNetwork.edge15.delayTime truncnormal(3s,1s)
config GreenNetwork.edge16.delayTime truncnormal(3s,1s)

vector 0 GreenNetwork.edge1 green ETV
vector 1 GreenNetwork.edge1 dirty ETV
vector 2 GreenNetwork.edge1 total ETV
0	1	0	0
0	7	1	0
0	15	2	0
0	34	3	0
0	60	4	0
0	105	5	0
0	152	6	0
0	193	7	0
0	242	8	0
0	280	9	0
0	329	10	0
0	375	11	0
0	408	12	0
0	450	13	0
0	500	14	0
0	539	15	0
0	584	16	0
0	628	17	0
0	677	18	0
0	718	19	0
0	758	20	0
0	801	21	0
0	848	22	0
0	896	23	0
0	942	24	0
0	978	25	0
0	1031	26	0
0	1073	27	0
0	1126	28	0
0	1161	29	0
0	1208	30	0
0	1253	31	0
0	1294	32	0
0	1355	33	0
0	1400	34	0
0	1443	35	0
0	1490	36	0
0	1542	37	0
0	1580	38	0
0	1624	39	0
0	1669	40	0
0	1718	41	0
0	1760	42	0
0	1810	43	0
0	1853	44	0
0	1893	45	0
0	1929	46	0
0	1977	47	0
0	2015	48	0
0	2058	49	0
0	2098	50	0
0	2140	51	0
0	2186	52	0
0	2229	53	0
0	2280	54	0
0	2328	55	0
0	2375	56	0
0	2423	57	0
0	2461	58	0
0	2502	59	0
0	2543	60	0
0	2599	61	0
0	2638	62	0
0	2691	63	0
0	2723	64	0
0	2778	65	0
0	2830	66	0
0	2873	67	0
0	2927	68	0
0	2969	69	0
0	3015	70	0
0	3057	71	0
0	3098	72	0
0	3149	73	0
0	3191	74	0
0	3237	75	0
0	3283	76	0
0	3330	77	0
0	3374	78	0
0	3419	79	0
0	3468	80	0
0	3511	81	0
0	3559	82	0
0	3606	83	0
0	3652	84	0
0	3694	85	0
0	3734	86	0
0	3783	87	0
0	3836	88	0
0	3876	89	0
0	3924	90	0
0	3975	91	0
0	4025	92	0
0	4061	93	0
0	4106	94	0
0	4160	95	0
0	4203	96	0
0	4253	97	0
0	4296	98	0
0	4344	99	0
0	4391	100	0
0	4441	101	0
0	4481	102	0
0	4523	103	0
0	4564	104	0
0	4609	105	0
0	4667	106	0
0	4714	107	0
0	4755	108	0
0	4794	109	0
0	4845	110	0
0	4894	111	0
0	4934	112	0
0	4978	113	0
0	5035	114	0
0	5080	115	0
0	5143	116	0
0	5182	117	0
0	5219	118	0
0	5269	119	0
0	5310	120	0
0	5369	121	0
0	5418	122	0
0	5461	123	0
0	5497	124	0
0	5550	125	0
0	5600	126	0
0	5658	127	0
0	5707	128	0
0	5752	129	0
0	5802	130	0
0	5857	131	0
0	5897	132	0
0	5944	133	0
0	5979	134	0
0	6021	135	0
0	6077	136	0
0	6112	137	0
0	6151	138	0
0	6196	139	0
0	6243	140	0
0	6290	141	0
0	6336	142	0
0	6384	143	0
0	6434	144	0
0	6483	145	0
0	6512	146	0
0	6560	147	0
0	6620	148	0
0	6664	149	0
0	6710	150	0
0	6752	151	0
0	6801	152	0
0	6845	153	0
0	6884	154	0
0	6922	155	0
0	6967	156	0
0	7018	157	0
0	7065	158	0
0	7114	159	0
0	7153	160	0
0	7207	161	0
0	7242	162	0
0	7279	163	0
0	7330	164	0
0	7378	165	0
0	7414	166	0
0	7463	167	0
0	7498	168	0
0	7541	169	0
0	7587	170	0
0	7627	171	0
0	7662	172	0
0	7700	173	0
0	7742	174	0
0	7790	175	0
0	7840	176	0
0	7886	177	0
0	7933	178	0
0	7988	179	0
0	8033	180	0
0	8074	181	0
0	8128	182	0
0	8170	183	0
0	8219	184	0
0	8260	185	0
0	8300	186	0
0	8341	187	0
0	8389	188	0
0	8437	189	0
0	8476	190	0
0	8516	191	0
0	8565	192	0
0	8610	193	0
0	8661	194	0
0	8707	195	0
0	8757	196	0
0	8805	197	0
0	8849	198	0
0	8898	199	0
0	8937	200	0
0	8978	201	0
0	9015	202	0
0	9058	203	0
0	9110	204	0
0	9160	205	0
0	9202	206	0
0	9247	207	0
0	9296	208	0
0	9354	209	0
0	9398	210	0
0	9439	211	0
0	9479	212	0
0	9528	213	0
0	9573	214	0
0	9614	215	0
0	9661	216	0
0	9700	217	0
0	9742	218	0
0	9783	219	0
0	9820	220	0
0	9869	221	0
0	9903	222	0
0	9941	223	0
0	9995	224	0
0	10036	225	0
0	10084	226	0
0	10134	227	0
0	10175	228	0
0	10218	229	0
0	10266	230	0
0	10310	231	0
0	10341	232	0
0	10388	233	0
0	10442	234	0
0	10483	235	0
0	10522	236	0
0	10581	237	0
0	10634	238	0
0	10680	239	0
0	10727	240	0
0	10777	241	0
0	10826	242	0
0	10879	243	0
0	10918	244	0
0	10959	245	0
0	11003	246	0
0	11055	247	0
0	11097	248	0
0	11147	249	0
0	11191	250	0
0	11228	251	0
0	11268	252	0
0	11310	253	0
0	11353	254	0
0	11391	255	0
0	11435	256	0
0	11483	257	0
0	11526	258	0
0	11565	259	0
0	11615	260	0
0	11651	261	0
0	11698	262	0
0	11754	263	0
0	11793	264	0
0	11832	265	0
0	11874	266	0
0	11923	267	0
0	11971	268	0
0	12023	269	0
0	12076	270	0
0	12112	271	0
0	12150	272	0
0	12183	273	0
0	12233	274	0
0	12282	275	0
0	12326	276	0
0	12371	277	0
0	12417	278	0
0	12474	279	0
0	12527	280	0
0	12573	281	0
0	12608	282	0
0	12648	283	0
0	12689	284	0
0	12734	285	0
0	12776	286	0
0	12828	287	0
0	12874	288	0
0	12925	289	0
0	12969	290	0
0	13016	291	0
0	13064	292	0
0	13126	293	0
0	13164	294	0
0	13217	295	0
0	13257	296	0
0	13299	297	0
0	13341	298	0
0	13382	299	0
0	13437	300	0
0	13478	301	0
0	13516	302	0
0	13558	303	0
0	13611	304	0
0	13663	305	0
0	13708	306	0
0	13753	307	0
0	13809	308	0
0	13854	309	0
0	13896	310	0
0	13952	311	0
0	13997	312	0
0	14041	313	0
0	14079	314	0
0	14126	315	0
0	14173	316	0
0	14219	317	0
0	14259	318	0
0	14301	319	0
0	14349	320	0
0	14393	321	0
0	14444	322	0
0	14492	323	0
0	14532	324	0
0	14581	325	0
0	14616	326	0
0	14665	327	0
0	14711	328	0
0	14755	329	0
0	14802	330	0
0	14848	331	0
0	14899	332	0
0	14942	333	0
0	14982	334	0
0	15030	335	0
0	15066	336	0
0	15122	337	0
0	15170	338	0
0	15215	339	0
0	15267	340	0
0	15305	341	0
0	15349	342	0
0	15394	343	0
0	15441	344	0
0	15480	345	0
0	15525	346	0
0	15563	347	0
0	15611	348	0
0	15670	349	0
0	15714	350	0
0	15767	351	0
0	15813	352	0
0	15861	353	0
0	15905	354	0
0	15941	355	0
0	15985	356	0
0	16032	357	0
0	16074	358	0
0	16124	359	0
0	16164	360	0
0	16216	361	0
0	16257	362	0
0	16305	363	0
0	16350	364	0
0	16400	365	0
0	16447	366	0
0	16495	367	0
0	16532	368	0
0	16575	369	0
0	16622	370	0
0	16669	371	0
0	16708	372	0
0	16755	373	0
0	16797	374	0
0	16833	375	0
0	16872	376	0
0	16924	377	0
0	16970	378	0
0	17013	379	0
0	17054	380	0
0	17100	381	0
0	17143	382	0
0	17188	383	0
0	17228	384	0
0	17273	385	0
0	17316	386	0
0	17355	387	0
0	17406	388	0
0	17448	389	0
0	17485	390	0
0	17536	391	0
0	17580	392	0
0	17635	393	0
0	17687	394	0
0	17730	395	0
0	17781	396	0
0	17821	397	0
0	17872	398	0
0	17910	399	0
0	17951	400	0
0	17989	401	0
0	18030	402	0
0	18077	403	0
0	18120	404	0
0	18163	405	0
0	18207	406	0
0	18258	407	0
0	18304	408	0
0	18348	409	0
0	18393	410	0
0	18427	411	0
0	18483	412	0
0	18526	413	0
0	18575	414	0
0	18619	415	0
0	18662	416	0
0	18703	417	0
0	18745	418	0
0	18798	419	0
0	18837	420	0
0	18886	421	0
0	18938	422	0
0	18990	423	0
0	19026	424	0
0	19064	425	0
0	19116	426	0
0	19166	427	0
0	19215	428	0
0	19255	429	0
0	19299	430	0
0	19342	431	0
0	19382	432	0
0	19435	433	0
0	19478	434	0
0	19529	435	0
0	19580	436	0
0	19625	437	0
0	19663	438	0
0	19706	439	0
0	19765	440	0
0	19810	441	0
0	19853	442	0
0	19899	443	0
0	19940	444	0
0	19993	445	0
0	20032	446	0
0	20077	447	0
0	20121	448	0
0	20171	449	0
0	20222	450	0
0	20265	451	0
0	20313	452	0
0	20361	453	0
0	20409	454	0
0	20445	455	0
0	20495	456	0
0	20539	457	0
0	20580	458	0
0	20624	459	0
0	20674	460	0
0	20723	461	0
0	20761	462	0
0	20798	463	0
0	20850	464	0
0	20898	465	0
0	20939	466	0
0	20983	467	0
0	21027	468	0
0	21072	469	0
0	21110	470	0
0	21162	471	0
0	21206	472	0
0	21249	473	0
0	21298	474	0
0	21344	475	0
0	21376	476	0
0	21421	477	0
0	21459	478	0
0	21504	479	0
0	21536	480	0
0	21587	481	0
0	21629	482	0
0	21667	483	0
0	21711	484	0
0	21756	485	0
0	21813	486	0
0	21848	487	0
0	21895	488	0
0	21946	489	0
0	21986	490	0
0	22032	491	0
0	22085	492	0
0	22138	493	0
0	22183	494	0
0	22231	495	0
0	22275	496	0
0	22317	497	0
0	22360	498	0
0	22401	499	0
0	22448	500	0
0	22500	501	0
0	22550	502	0
0	22586	503	0
0	22638	504	0
0	22681	505	0
0	22729	506	0
0	22782	507	0
0	22828	508	0
0	22882	509	0
0	22911	510	0
0	22958	511	0
0	23003	512	0
0	23050	513	0
0	23103	514	0
0	23148	515	0
0	23185	516	0
0	23221	517	0
0	23258	518	0
0	23295	519	0
0	23346	520	0
0	23389	521	0
0	23443	522	0
0	23493	523	0
0	23535	524	0
0	23582	525	0
0	23612	526	0
0	23666	527	0
0	23716	528	0
0	23757	529	0
0	23807	530	0
0	23850	531	0
0	23906	532	0
0	23956	533	0
0	23996	534	0
0	24044	535	0
0	24086	536	0
0	24135	537	0
0	24184	538	0
0	24221	539	0
0	24265	540	0
0	24325	541	0
0	24360	542	0
0	24403	543	0
0	24449	544	0
0	24485	545	0
0	24534	546	0
0	24576	547	0
0	24622	548	0
0	24674	549	0
0	24711	550	0
0	24763	551	0
0	24807	552	0
0	24862	553	0
0	24897	554	0
0	24942	555	0
0	24992	556	0
0	25050	557	0
0	25099	558	0
0	25154	559	0
0	25204	560	0
0	25248	561	0
0	25292	562	0
0	25336	563	0
0	25379	564	0
0	25431	565	0
0	25478	566	0
0	25524	567	0
0	25568	568	0
0	25614	569	0
0	25659	570	0
0	25703	571	0
0	25751	572	0
0	25793	573	0
0	25845	574	0
0	25885	575	0
0	25935	576	0
0	25969	577	0
0	26021	578	0
0	26066	579	0
0	26108	580	0
0	26158	581	0
0	26197	582	0
0	26247	583	0
0	26282	584	0
0	26327	585	0
0	26373	586	0
0	26421	587	0
0	26451	588	0
0	26509	589	0
0	26548	590	0
0	26584	591	0
0	26639	592	0
0	26685	593	0
0	26728	594	0
0	26770	595	0
0	26818	596	0
0	26864	597	0
0	26902	598	0
0	26944	599	0
0	26993	600	0
0	27037	601	0
0	27087	602	0
0	27132	603	0
0	27174	604	0
0	27221	605	0
0	27263	606	0
0	27316	607	0
0	27375	608	0
0	27424	609	0
0	27475	610	0
0	27512	611	0
0	27557	612	0
0	27606	613	0
0	27643	614	0
0	27683	615	0
0	27731	616	0
0	27779	617	0
0	27826	618	0
0	27871	619	0
0	27910	620	0
0	27957	621	0
0	28001	622	0
0	28035	623	0
0	28080	624	0
0	28125	625	0
0	28184	626	0
0	28226	627	0
0	28276	628	0
0	28332	629	0
0	28373	630	0
0	28418	631	0
0	28459	632	0
0	28504	633	0
0	28538	634	0
0	28595	635	0
0	28640	636	0
0	28688	637	0
0	28729	638	0
0	28772	639	0
0	28815	640	0
0	28862	641	0
0	28902	642	0
0	28954	643	0
0	29001	644	0
0	29048	645	0
0	29093	646	0
0	29128	647	0
0	29185	648	0
0	29230	649	0
0	29273	650	0
0	29313	651	0
0	29355	652	0
0	29399	653	0
0	29453	654	0
0	29485	655	0
0	29527	656	0
0	29583	657	0
0	29629	658	0
0	29676	659	0
0	29716	660	0
0	29760	661	0
0	29811	662	0
0	29861	663	0
0	29915	664	0
0	29958	665	0
0	30002	666	0
0	30056	667	0
0	30100	668	0
0	30138	669	0
0	30184	670	0
0	30225	671	0
0	30263	672	0
0	30312	673	0
0	30350	674	0
0	30383	675	0
0	30436	676	0
0	30481	677	0
0	30524	678	0
0	30572	679	0
0	30611	680	0
0	30655	681	0
0	30710	682	0
0	30750	683	0
0	30788	684	0
0	30835	685	0
0	30884	686	0
0	30932	687	0
0	30973	688	0
0	31017	689	0
0	31066	690	0
0	31117	691	0
0	31160	692	0
0	31209	693	0
0	31251	694	0
0	31291	695	0
0	31339	696	0
0	31374	697	0
0	31416	698	0
0	31471	699	0
0	31523	700	0
0	31573	701	0
0	31627	702	0
0	31666	703	0
0	31696	704	0
0	31747	705	0
0	31792	706	0
0	31833	707	0
0	31875	708	0
0	31913	709	0
0	31964	710	0
0	32008	711	0
0	32051	712	0
0	32093	713	0
0	32133	714	0
0	32186	715	0
0	32234	716	0
0	32274	717	0
0	32314	718	0
0	32370	719	0
0	32414	720	0
0	32462	721	0
0	32508	722	0
0	32562	723	0
0	32612	724	0
0	32649	725	0
0	32695	726	0
0	32733	727	0
0	32781	728	0
0	32833	729	0
0	32880	730	0
0	32923	731	0
0	32974	732	0
0	33023	733	0
0	33075	734	0
0	33118	735	0
0	33161	736	0
0	33209	737	0
0	33249	738	0
0	33287	739	0
0	33334	740	0
0	33383	741	0
0	33428	742	0
0	33471	743	0
0	33513	744	0
0	33567	745	0
0	33613	746	0
0	33652	747	0
0	33690	748	0
0	33742	749	0
0	33785	750	0
0	33838	751	0
0	33885	752	0
0	33924	753	0
0	33964	754	0
0	34014	755	0
0	34052	756	0
0	34105	757	0
0	34155	758	0
0	34202	759	0
0	34246	760	0
0	34305	761	0
0	34348	762	0
0	34391	763	0
0	34437	764	0
0	34484	765	0
0	34529	766	0
0	34572	767	0
0	34624	768	0
0	34667	769	0
0	34720	770	0
0	34761	771	0
0	34806	772	0
0	34846	773	0
0	34900	774	0
0	34956	775	0
0	34993	776	0
0	35052	777	0
0	35108	778	0
0	35151	779	0
0	35192	780	0
0	35239	781	0
0	35284	782	0
0	35332	783	0
0	35369	784	0
0	35410	785	0
0	35450	786	0
0	35487	787	0
0	35534	788	0
0	35586	789	0
0	35636	790	0
0	35676	791	0
0	35712	792	0
0	35762	793	0
0	35805	794	0
0	35847	795	0
0	35889	796	0
0	35929	797	0
0	35970	798	0
0	36016	799	0
0	36059	800	0
0	36103	801	0
0	36147	802	0
0	36189	803	0
0	36228	804	0
0	36279	805	0
0	36321	806	0
0	36368	807	0
0	36403	808	0
0	36444	809	0
0	36479	810	0
0	36528	811	0
0	36575	812	0
0	36623	813	0
0	36668	814	0
0	36715	815	0
0	36753	816	0
0	36793	817	0
0	36845	818	0
0	36886	819	0
0	36939	820	0
0	36974	821	0
0	37028	822	0
0	37069	823	0
0	37118	824	0
0	37155	825	0
0	37193	826	0
0	37252	827	0
0	37295	828	0
0	37351	829	0
0	37390	830	0
0	37442	831	0
0	37490	832	0
0	37533	833	0
0	37585	834	0
0	37629	835	0
0	37674	836	0
0	37722	837	0
0	37760	838	0
0	37811	839	0
0	37858	840	0
0	37904	841	0
0	37953	842	0
0	38000	843	0
0	38041	844	0
0	38081	845	0
0	38131	846	0
0	38177	847	0
0	38228	848	0
0	38271	849	0
0	38317	850	0
0	38362	851	0
0	38409	852	0
0	38455	853	0
0	38509	854	0
0	38552	855	0
0	38611	856	0
0	38649	857	0
0	38696	858	0
0	38743	859	0
0	38782	860	0
0	38833	861	0
0	38890	862	0
0	38936	863	0
0	38982	864	0
0	39034	865	0
0	39076	866	0
0	39108	867	0
0	39164	868	0
0	39203	869	0
0	39261	870	0
0	39310	871	0
0	39357	872	0
0	39396	873	0
0	39447	874	0
0	39497	875	0
0	39541	876	0
0	39589	877	0
0	39640	878	0
0	39694	879	0
0	39731	880	0
0	39783	881	0
0	39828	882	0
0	39865	883	0
0	39907	884	0
0	39953	885	0
0	40001	886	0
0	40051	887	0
0	40103	888	0
0	40138	889	0
0	40181	890	0
0	40225	891	0
0	40268	892	0
0	40308	893	0
0	40347	894	0
0	40393	895	0
0	40438	896	0
0	40480	897	0
0	40515	898	0
0	40555	899	0
0	40604	900	0
0	40646	901	0
0	40698	902	0
0	40733	903	0
0	40778	904	0
0	40829	905	0
0	40874	906	0
0	40910	907	0
0	40952	908	0
0	41001	909	0
0	41053	910	0
0	41099	911	0
0	41135	912	0
0	41183	913	0
0	41225	914	0
0	41265	915	0
0	41313	916	0
0	41357	917	0
0	41410	918	0
0	41446	919	0
0	41485	920	0
0	41541	921	0
0	41590	922	0
0	41629	923	0
0	41669	924	0
0	41712	925	0
0	41768	926	0
0	41813	927	0
0	41862	928	0
0	41906	929	0
0	41945	930	0
0	42003	931	0
0	42051	932	0
0	42097	933	0
0	42140	934	0
0	42183	935	0
0	42230	936	0
0	42272	937	0
0	42328	938	0
0	42371	939	0
0	42416	940	0
0	42458	941	0
0	42506	942	0
0	42541	943	0
0	42591	944	0
0	42630	945	0
0	42669	946	0
0	42721	947	0
0	42767	948	0
0	42819	949	0
0	42864	950	0
0	42906	951	0
0	42951	952	0
0	42989	953	0
0	43042	954	0
0	43081	955	0
0	43130	956	0
0	43193	957	0
0	43236	958	0
0	43296	959	0
0	43348	960	0
0	43391	961	0
0	43436	962	0
0	43479	963	0
0	43521	964	0
0	43563	965	0
0	43602	966	0
0	43657	967	0
0	43698	968	0
0	43744	969	0
0	43797	970	0
0	43841	971	0
0	43886	972	0
0	43931	973	0
0	43986	974	0
0	44030	975	0
0	44068	976	0
0	44103	977	0
0	44147	978	0
0	44189	979	0
0	44245	980	0
0	44283	981	0
0	44333	982	0
0	44374	983	0
0	44422	984	0
0	44464	985	0
0	44508	986	0
0	44551	987	0
0	44603	988	0
0	44647	989	0
0	44690	990	0
0	44735	991	0
0	44780	992	0
0	44821	993	0
0	44867	994	0
0	44923	995	0
0	44970	996	0
0	45017	997	0
0	45059	998	0
0	45104	999	0
0	45145	1000	0
0	45184	1001	0
0	45223	1002	0
0	45268	1003	0
0	45323	1004	0
0	45366	1005	0
0	45415	1006	0
0	45460	1007	0
0	45500	1008	0
0	45544	1009	0
0	45593	1010	0
0	45634	1011	0
0	45686	1012	0
0	45726	1013	0
0	45770	1014	0
0	45825	1015	0
0	45877	1016	0
0	45921	1017	0
0	45975	1018	0
0	46005	1019	0
0	46045	1020	0
0	46100	1021	0
0	46141	1022	0
0	46186	1023	0
0	46238	1024	0
0	46277	1025	0
0	46309	1026	0
0	46355	1027	0
0	46399	1028	0
0	46448	1029	0
0	46497	1030	0
0	46532	1031	0
0	46583	1032	0
0	46638	1033	0
0	46676	1034	0
0	46722	1035	0
0	46755	1036	0
0	46795	1037	0
0	46849	1038	0
0	46898	1039	0
0	46941	1040	0
0	46979	1041	0
0	47030	1042	0
0	47076	1043	0
0	47117	1044	0
0	47162	1045	0
0	47205	1046	0
0	47253	1047	0
0	47300	1048	0
0	47361	1049	0
0	47409	1050	0
0	47453	1051	0
0	47492	1052	0
0	47532	1053	0
0	47583	1054	0
0	47633	1055	0
0	47672	1056	0
0	47714	1057	0
0	47761	1058	0
0	47814	1059	0
0	47871	1060	0
0	47914	1061	0
0	47952	1062	0
0	48002	1063	0
0	48037	1064	0
0	48089	1065	0
0	48143	1066	0
0	48195	1067	0
0	48237	1068	0
0	48274	1069	0
0	48317	1070	0
0	48372	1071	0
0	48418	1072	0
0	48462	1073	0
0	48499	1074	0
0	48545	1075	0
0	48588	1076	0
0	48645	1077	0
0	48694	1078	0
0	48732	1079	0
0	48779	1080	0
0	48823	1081	0
0	48865	1082	0
0	48914	1083	0
0	48953	1084	0
0	48992	1085	0
0	49034	1086	0
0	49083	1087	0
0	49127	1088	0
0	49171	1089	0
0	49214	1090	0
0	49260	1091	0
0	49315	1092	0
0	49358	1093	0
0	49413	1094	0
0	49455	1095	0
0	49507	1096	0
0	49539	1097	0
0	49588	1098	0
0	49640	1099	0
0	49684	1100	0
0	49728	1101	0
0	49776	1102	0
0	49812	1103	0
0	49861	1104	0
0	49908	1105	0
0	49958	1106	0
0	50001	1107	0
0	50045	1108	0
0	50087	1109	0
0	50132	1110	0
0	50178	1111	0
0	50215	1112	0
0	50257	1113	0
0	50304	1114	0
0	50354	1115	0
0	50397	1116	0
0	50439	1117	0
0	50480	1118	0
0	50517	1119	0
0	50572	1120	0
0	50623	1121	0
0	50663	1122	0
0	50709	1123	0
0	50765	1124	0
0	50801	1125	0
0	50854	1126	0
0	50909	1127	0
0	50947	1128	0
0	50994	1129	0
0	51041	1130	0
0	51083	1131	0
0	51133	1132	0
0	51177	1133	0
0	51227	1134	0
0	51262	1135	0
0	51311	1136	0
0	51359	1137	0
0	51398	1138	0
0	51447	1139	0
0	51492	1140	0
0	51530	1141	0
0	51581	1142	0
0	51627	1143	0
0	51681	1144	0
0	51724	1145	0
0	51759	1146	0
0	51800	1147	0
0	51848	1148	0
0	51888	1149	0
0	51937	1150	0
0	51978	1151	0
0	52015	1152	0
0	52056	1153	0
0	52113	1154	0
0	52170	1155	0
0	52215	1156	0
0	52262	1157	0
0	52305	1158	0
0	52351	1159	0
0	52392	1160	0
0	52440	1161	0
0	52481	1162	0
0	52524	1163	0
0	52558	1164	0
0	52605	1165	0
0	52661	1166	0
0	52704	1167	0
0	52742	1168	0
0	52784	1169	0
0	52840	1170	0
0	52889	1171	0
0	52929	1172	0
0	52975	1173	0
0	53024	1174	0
0	53073	1175	0
0	53126	1176	0
0	53173	1177	0
0	53213	1178	0
0	53273	1179	0
0	53310	1180	0
0	53352	1181	0
0	53400	1182	0
0	53443	1183	0
0	53491	1184	0
0	53536	1185	0
0	53583	1186	0
0	53627	1187	0
0	53674	1188	0
0	53722	1189	0
0	53761	1190	0
0	53805	1191	0
0	53857	1192	0
0	53891	1193	0
0	53930	1194	0
0	53983	1195	0
0	54028	1196	0
0	54083	1197	0
0	54126	1198	0
0	54174	1199	0
0	54223	1200	0
0	54261	1201	0
0	54314	1202	0
0	54368	1203	0
0	54413	1204	0
0	54453	1205	0
0	54505	1206	0
0	54547	1207	0
0	54595	1208	0
0	54645	1209	0
0	54679	1210	0
0	54738	1211	0
0	54775	1212	0
0	54814	1213	0
0	54869	1214	0
0	54908	1215	0
0	54951	1216	0
0	55010	1217	0
0	55061	1218	0
0	55102	1219	0
0	55138	1220	0
0	55185	1221	0
0	55231	1222	0
0	55279	1223	0
0	55320	1224	0
0	55360	1225	0
0	55399	1226	0
0	55443	1227	0
0	55485	1228	0
0	55536	1229	0
0	55569	1230	0
0	55614	1231	0
0	55657	1232	0
0	55712	1233	0
0	55756	1234	0
0	55803	1235	0
0	55857	1236	0
0	55900	1237	0
0	55940	1238	0
0	55995	1239	0
0	56033	1240	0
0	56072	1241	0
0	56121	1242	0
0	56172	1243	0
0	56221	1244	0
0	56261	1245	0
0	56298	1246	0
0	56340	1247	0
0	56390	1248	0
0	56431	1249	0
0	56496	1250	0
0	56527	1251	0
0	56570	1252	0
0	56622	1253	0
0	56670	1254	0
0	56704	1255	0
0	56746	1256	0
0	56807	1257	0
0	56856	1258	0
0	56903	1259	0
0	56950	1260	0
0	56986	1261	0
0	57027	1262	0
0	57072	1263	0
0	57112	1264	0
0	57159	1265	0
0	57197	1266	0
0	57236	1267	0
0	57286	1268	0
0	57329	1269	0
0	57383	1270	0
0	57431	1271	0
0	57475	1272	0
0	57518	1273	0
0	57554	1274	0
0	57603	1275	0
0	57649	1276	0
0	57686	1277	0
0	57737	1278	0
0	57790	1279	0
0	57834	1280	0
0	57878	1281	0
0	57922	1282	0
0	57970	1283	0
0	58025	1284	0
0	58066	1285	0
0	58116	1286	0
0	58167	1287	0
0	58209	1288	0
0	58251	1289	0
0	58301	1290	0
0	58356	1291	0
0	58409	1292	0
0	58458	1293	0
0	58485	1294	0
0	58532	1295	0
0	58573	1296	0
0	58623	1297	0
0	58672	1298	0
0	58715	1299	1
0	58769	1300	1
0	58805	1301	1
0	58844	1302	1
0	58874	1303	1
0	58914	1304	1
0	58966	1305	1
0	59015	1306	1
0	59058	1307	1
0	59104	1308	1
0	59157	1309	1
0	59195	1310	1
0	59240	1311	1
0	59282	1312	1
0	59329	1313	1
0	59377	1314	1
0	59429	1315	1
0	59478	1316	1
0	59522	1317	1
0	59558	1318	1
0	59601	1319	1
0	59645	1320	1
0	59687	1321	1
0	59738	1322	1
0	59788	1323	1
0	59836	1324	1
0	59871	1325	1
0	59917	1326	1
0	59959	1327	1
0	60001	1328	1
0	60052	1329	1
0	60087	1330	1
0	60132	1331	1
0	60178	1332	1
0	60218	1333	1
0	60265	1334	1
0	60317	1335	1
0	60366	1336	1
0	60403	1337	1
0	60450	1338	1
0	60495	1339	1
0	60544	1340	1
0	60579	1341	1
0	60620	1342	1
0	60665	1343	1
0	60713	1344	1
0	60751	1345	1
0	60794	1346	1
0	60836	1347	1
0	60889	1348	1
0	60940	1349	1
0	60980	1350	1
0	61032	1351	1
0	61081	1352	1
0	61121	1353	1
0	61170	1354	1
0	61221	1355	1
0	61266	1356	1
0	61305	1357	1
0	61328	1358	1
0	61383	1359	1
0	61426	1360	1
0	61480	1361	1
0	61529	1362	1
0	61582	1363	1
0	61622	1364	1
0	61665	1365	1
0	61717	1366	1
0	61759	1367	1
0	61810	1368	1
0	61869	1369	1
0	61914	1370	1
0	61954	1371	1
0	61998	1372	1
0	62041	1373	1
0	62104	1374	1
0	62149	1375	1
0	62189	1376	1
0	62228	1377	1
0	62269	1378	1
0	62310	1379	1
0	62361	1380	1
0	62410	1381	1
0	62456	1382	1
0	62508	1383	1
0	62546	1384	1
0	62587	1385	1
0	62627	1386	1
0	62665	1387	1
0	62714	1388	1
0	62758	1389	1
0	62799	1390	1
0	62840	1391	1
0	62871	1392	1
0	62923	1393	1
0	62977	1394	1
0	63010	1395	1
0	63066	1396	1
0	63112	1397	1
0	63155	1398	1
0	63202	1399	1
0	63248	1400	1
0	63302	1401	1
0	63346	1402	1
0	63384	1403	1
0	63427	1404	1
0	63471	1405	1
0	63515	1406	1
0	63560	1407	1
0	63602	1408	1
0	63650	1409	1
0	63685	1410	1
0	63735	1411	1
0	63785	1412	1
0	63825	1413	1
0	63865	1414	1
0	63912	1415	1
0	63954	1416	1
0	64008	1417	1
0	64053	1418	1
0	64099	1419	1
0	64145	1420	1
0	64188	1421	1
0	64238	1422	1
0	64286	1423	1
0	64339	1424	1
0	64380	1425	1
0	64417	1426	1
0	64466	1427	1
0	64508	1428	1
0	64551	1429	1
0	64601	1430	1
0	64645	1431	1
0	64701	1432	1
0	64752	1433	1
0	64800	1434	1
0	64842	1435	1
0	64890	1436	1
0	64931	1437	1
0	64989	1438	1
0	65038	1439	1
0	65083	1440	1
0	65129	1441	1
0	65174	1442	1
0	65219	1443	1
0	65266	1444	1
0	65317	1445	1
0	65356	1446	1
0	65407	1447	1
0	65443	1448	1
0	65485	1449	1
0	65533	1450	1
0	65576	1451	1
0	65616	1452	1
0	65661	1453	1
0	65701	1454	1
0	65735	1455	1
0	65791	1456	1
0	65842	1457	1
0	65886	1458	1
0	65920	1459	1
0	65971	1460	1
0	66022	1461	1
0	66070	1462	1
0	66111	1463	1
0	66154	1464	1
0	66202	1465	1
0	66246	1466	1
0	66291	1467	1
0	66344	1468	1
0	66395	1469	1
0	66438	1470	1
0	66481	1471	1
0	66517	1472	1
0	66566	1473	1
0	66606	1474	1
0	66637	1475	1
0	66685	1476	1
0	66727	1477	1
0	66776	1478	1
0	66824	1479	1
0	66869	1480	1
0	66919	1481	1
0	66957	1482	1
0	67002	1483	1
0	67058	1484	1
0	67117	1485	1
0	67167	1486	1
0	67202	1487	1
0	67253	1488	1
0	67300	1489	1
0	67340	1490	1
0	67388	1491	1
0	67433	1492	1
0	67484	1493	1
0	67528	1494	1
0	67577	1495	1
0	67611	1496	1
0	67661	1497	1
0	67697	1498	1
0	67744	1499	1
0	67789	1500	1
0	67833	1501	1
0	67889	1502	1
0	67928	1503	1
0	67974	1504	1
0	68014	1505	1
0	68056	1506	1
0	68105	1507	1
0	68151	1508	1
0	68206	1509	1
0	68242	1510	1
0	68291	1511	1
0	68339	1512	1
0	68382	1513	1
0	68422	1514	1
0	68474	1515	1
0	68517	1516	1
0	68572	1517	1
0	68623	1518	1
0	68673	1519	1
0	68716	1520	1
0	68769	1521	1
0	68804	1522	1
0	68853	1523	1
0	68897	1524	1
0	68945	1525	1
0	68996	1526	1
0	69038	1527	1
0	69087	1528	1
0	69139	1529	1
0	69176	1530	1
0	69221	1531	1
0	69266	1532	1
0	69318	1533	1
0	69354	1534	1
0	69398	1535	1
0	69447	1536	1
0	69497	1537	1
0	69536	1538	2
0	69581	1539	2
0	69628	1540	2
0	69674	1541	2
0	69720	1542	2
0	69761	1543	2
0	69810	1544	2
0	69863	1545	2
0	69906	1546	2
0	69955	1547	2
0	69998	1548	2
0	70055	1549	2
0	70103	1550	2
0	70144	1551	2
0	70191	1552	2
0	70244	1553	2
0	70296	1554	2
0	70339	1555	2
0	70377	1556	2
0	70423	1557	2
0	70472	1558	2
0	70528	1559	2
0	70568	1560	2
0	70603	1561	2
0	70647	1562	2
0	70693	1563	2
0	70730	1564	2
0	70775	1565	2
0	70824	1566	2
0	70864	1567	2
0	70916	1568	2
0	70967	1569	2
0	71014	1570	2
0	71060	1571	2
0	71100	1572	2
0	71161	1573	2
0	71196	1574	2
0	71241	1575	2
0	71274	1576	2
0	71331	1577	2
0	71374	1578	2
0	71429	1579	2
0	71471	1580	2
0	71516	1581	2
0	71561	1582	2
0	71602	1583	2
0	71643	1584	2
0	71691	1585	2
0	71734	1586	2
0	71780	1587	2
0	71827	1588	2
0	71872	1589	2
0	71922	1590	2
0	71972	1591	2
0	72013	1592	2
0	72063	1593	2
0	72108	1594	2
0	72151	1595	2
0	72196	1596	2
0	72235	1597	2
0	72279	1598	2
0	72330	1599	2
0	72378	1600	2
0	72429	1601	2
0	72479	1602	2
0	72525	1603	2
0	72572	1604	2
0	72618	1605	2
0	72663	1606	2
0	72709	1607	2
0	72763	1608	2
0	72795	1609	2
0	72838	1610	2
0	72889	1611	2
0	72930	1612	2
0	72973	1613	2
0	73019	1614	2
0	73061	1615	2
0	73107	1616	2
0	73153	1617	2
0	73192	1618	2
0	73240	1619	2
0	73287	1620	2
0	73331	1621	2
0	73382	1622	2
0	73428	1623	2
0	73474	1624	2
0	73522	1625	2
0	73580	1626	2
0	73623	1627	2
0	73664	1628	2
0	73702	1629	2
0	73746	1630	2
0	73792	1631	2
0	73838	1632	2
0	73893	1633	2
0	73938	1634	2
0	73990	1635	2
0	74029	1636	2
0	74072	1637	2
0	74117	1638	2
0	74157	1639	2
0	74196	1640	2
0	74250	1641	2
0	74300	1642	2
0	74343	1643	2
0	74382	1644	2
0	74435	1645	2
0	74471	1646	2
0	74514	1647	2
0	74566	1648	2
0	74617	1649	2
0	74654	1650	2
0	74695	1651	2
0	74744	1652	2
0	74789	1653	2
0	74841	1654	2
0	74879	1655	2
0	74930	1656	2
0	74976	1657	2
0	75028	1658	2
0	75065	1659	2
0	75105	1660	2
0	75159	1661	2
0	75206	1662	2
0	75246	1663	2
0	75283	1664	2
0	75335	1665	2
0	75382	1666	2
0	75428	1667	2
0	75464	1668	2
0	75503	1669	2
0	75540	1670	2
0	75591	1671	2
0	75638	1672	2
0	75690	1673	2
0	75735	1674	2
0	75781	1675	2
0	75819	1676	2
0	75859	1677	2
0	75904	1678	2
0	75960	1679	2
0	76011	1680	2
0	76054	1681	2
0	76103	1682	2
0	76132	1683	2
0	76170	1684	2
0	76216	1685	2
0	76269	1686	2
0	76318	1687	2
0	76364	1688	3
0	76418	1689	3
0	76466	1690	3
0	76515	1691	3
0	76557	1692	3
0	76598	1693	3
0	76650	1694	3
0	76695	1695	3
0	76743	1696	3
0	76777	1697	3
0	76833	1698	3
0	76871	1699	3
0	76916	1700	3
0	76971	1701	3
0	77022	1702	3
0	77062	1703	3
0	77108	1704	3
0	77151	1705	3
0	77198	1706	3
0	77252	1707	3
0	77295	1708	3
0	77350	1709	3
0	77397	1710	3
0	77444	1711	3
0	77494	1712	3
0	77545	1713	3
0	77592	1714	3
0	77631	1715	3
0	77684	1716	3
0	77728	1717	3
0	77768	1718	3
0	77820	1719	3
0	77864	1720	3
0	77907	1721	3
0	77961	1722	3
0	77995	1723	3
0	78038	1724	3
0	78078	1725	3
0	78125	1726	3
0	78180	1727	3
0	78224	1728	3
0	78257	1729	3
0	78302	1730	3
0	78359	1731	3
0	78409	1732	3
0	78452	1733	3
0	78504	1734	3
0	78543	1735	3
0	78585	1736	3
0	78641	1737	3
0	78681	1738	3
0	78716	1739	3
0	78767	1740	3
0	78803	1741	3
0	78856	1742	3
0	78902	1743	3
0	78949	1744	3
0	78994	1745	3
0	79035	1746	3
0	79090	1747	3
0	79133	1748	3
0	79171	1749	3
0	79226	1750	3
0	79267	1751	3
0	79311	1752	3
0	79354	1753	3
0	79406	1754	3
0	79442	1755	3
0	79488	1756	3
0	79528	1757	3
0	79582	1758	3
0	79623	1759	3
0	79660	1760	3
0	79696	1761	3
0	79743	1762	3
0	79798	1763	3
0	79840	1764	3
0	79878	1765	3
0	79917	1766	3
0	79958	1767	3
0	80003	1768	3
0	80061	1769	3
0	80111	1770	3
0	80151	1771	3
0	80198	1772	3
0	80242	1773	3
0	80296	1774	3
0	80348	1775	3
0	80396	1776	3
0	80444	1777	3
0	80480	1778	3
0	80524	1779	3
0	80563	1780	3
0	80612	1781	3
0	80654	1782	3
0	80699	1783	3
0	80746	1784	3
0	80779	1785	3
0	80830	1786	3
0	80866	1787	3
0	80908	1788	3
0	80948	1789	3
0	80987	1790	3
0	81043	1791	3
0	81084	1792	3
0	81122	1793	3
0	81166	1794	3
0	81215	1795	3
0	81251	1796	3
0	81301	1797	3
0	81354	1798	3
0	81407	1799	4
0	81446	1800	4
0	81485	1801	4
0	81540	1802	4
0	81585	1803	4
0	81626	1804	4
0	81675	1805	4
0	81722	1806	4
0	81765	1807	4
0	81815	1808	4
0	81866	1809	4
0	81903	1810	4
0	81944	1811	4
0	81986	1812	4
0	82033	1813	4
0	82075	1814	4
0	82126	1815	4
0	82165	1816	4
0	82212	1817	4
0	82255	1818	4
0	82303	1819	4
0	82354	1820	4
0	82402	1821	4
0	82456	1822	4
0	82497	1823	4
0	82547	1824	4
0	82590	1825	4
0	82628	1826	4
0	82682	1827	4
0	82729	1828	4
0	82771	1829	4
0	82819	1830	4
0	82864	1831	4
0	82909	1832	4
0	82954	1833	4
0	83003	1834	4
0	83040	1835	4
0	83095	1836	4
0	83146	1837	4
0	83202	1838	4
0	83240	1839	4
0	83289	1840	4
0	83335	1841	4
0	83379	1842	4
0	83428	1843	4
0	83482	1844	4
0	83529	1845	4
0	83569	1846	4
0	83617	1847	4
0	83651	1848	4
0	83700	1849	4
0	83752	1850	4
0	83791	1851	4
0	83841	1852	4
0	83881	1853	4
0	83926	1854	4
0	83978	1855	4
0	84019	1856	4
0	84066	1857	4
0	84116	1858	4
0	84163	1859	4
0	84205	1860	4
0	84247	1861	4
0	84296	1862	4
0	84342	1863	4
0	84400	1864	4
0	84446	1865	4
0	84496	1866	4
0	84533	1867	4
0	84581	1868	4
0	84634	1869	4
0	84680	1870	4
0	84717	1871	4
0	84755	1872	4
0	84799	1873	4
0	84843	1874	4
0	84895	1875	4
0	84937	1876	4
0	84994	1877	4
0	85032	1878	4
0	85073	1879	4
0	85117	1880	4
0	85167	1881	4
0	85214	1882	4
0	85265	1883	4
0	85324	1884	4
0	85365	1885	4
0	85410	1886	4
0	85452	1887	4
0	85499	1888	4
0	85542	1889	5
0	85591	1890	5
0	85634	1891	5
0	85688	1892	5
0	85742	1893	5
0	85784	1894	5
0	85833	1895	5
0	85885	1896	5
0	85923	1897	5
0	85960	1898	5
0	86006	1899	5
0	86055	1900	5
0	86092	1901	5
0	86132	1902	5
0	86184	1903	5
0	86236	1904	5
0	86283	1905	5
0	86323	1906	5
0	86365	1907	5
0	86410	1908	5
0	86464	1909	5
0	86507	1910	5
0	86548	1911	5
0	86600	1912	5
0	86649	1913	5
0	86684	1914	5
0	86737	1915	5
0	86787	1916	5
0	86833	1917	5
0	86874	1918	5
0	86927	1919	5
0	86965	1920	5
0	87015	1921	5
0	87065	1922	5
0	87115	1923	5
0	87153	1924	5
0	87197	1925	5
0	87244	1926	5
0	87288	1927	5
0	87327	1928	5
0	87377	1929	5
0	87426	1930	5
0	87478	1931	5
0	87528	1932	5
0	87557	1933	5
0	87604	1934	5
0	87655	1935	5
0	87704	1936	5
0	87746	1937	5
0	87787	1938	5
0	87840	1939	5
0	87889	1940	5
0	87945	1941	5
0	87999	1942	5
0	88042	1943	5
0	88084	1944	5
0	88130	1945	5
0	88173	1946	5
0	88221	1947	5
0	88273	1948	5
0	88316	1949	5
0	88367	1950	5
0	88412	1951	5
0	88456	1952	5
0	88503	1953	5
0	88563	1954	5
0	88615	1955	5
0	88659	1956	5
0	88702	1957	5
0	88739	1958	5
0	88795	1959	5
0	88843	1960	5
0	88894	1961	5
0	88935	1962	5
0	88972	1963	5
0	89017	1964	5
0	89062	1965	5
0	89116	1966	6
0	89161	1967	6
0	89210	1968	6
0	89252	1969	6
0	89295	1970	6
0	89344	1971	6
0	89400	1972	6
0	89451	1973	6
0	89492	1974	6
0	89546	1975	6
0	89578	1976	6
0	89634	1977	6
0	89674	1978	6
0	89727	1979	6
0	89772	1980	6
0	89821	1981	6
0	89874	1982	6
0	89917	1983	6
0	89959	1984	6
0	90005	1985	6
0	90044	1986	6
0	90095	1987	6
0	90141	1988	6
0	90187	1989	6
0	90227	1990	6
0	90274	1991	6
0	90328	1992	6
0	90382	1993	6
0	90430	1994	6